LAMMPS data file via write_data, version 8 Apr 2021, timestep = 10000000

587 atoms
1 atom types
22030 bonds
20 bond types

-294.5 294.5 xlo xhi
-294.5 294.5 ylo yhi
-1 588 zlo zhi

Masses

1 1

Atoms # bond

187 1 1 -42.70106490769339 38.153375436861126 325.6149925102504 0 0 0
180 1 1 -41.03655018989469 38.099407947220165 324.90398578049525 0 0 0
181 1 1 -40.57044484822693 39.013765798205824 324.9343342417604 0 0 0
183 1 1 -41.46604800802944 39.63931323544062 325.0273968549997 0 0 0
182 1 1 -40.8998378633003 39.617817904623834 324.2678612722612 0 0 0
165 1 1 -41.38738118406739 41.004989089620544 325.41304389928945 0 0 0
166 1 1 -40.560347607286765 41.51904146809693 325.4294245816013 0 0 0
203 1 1 -40.38318752141298 36.45851704302311 326.3895988146926 0 0 0
204 1 1 -40.76728458565515 35.88678383184955 326.99162089470985 0 0 0
188 1 1 -43.377428789039215 38.62148569669137 326.09930525289025 0 0 0
178 1 1 -41.44654385906956 37.578478797785 326.0332965037383 0 0 0
177 1 1 -41.121922376875496 37.71645392260588 326.9508882646295 0 0 0
202 1 1 -39.882969514622836 37.28190265192305 326.0815396072247 0 0 0
179 1 1 -40.67483025145645 37.33943149541251 325.37693212249786 0 0 0
201 1 1 -40.0475829896089 37.99535587130647 326.7217894542809 0 0 0
200 1 1 -39.225640121562684 37.92124860608552 327.12347533663444 0 0 0
186 1 1 -42.19421333049986 38.98743459636537 325.82903197176023 0 0 0
189 1 1 -42.95030133668407 39.12747270965436 326.7622792499684 0 0 0
185 1 1 -41.432572719521545 38.68032720386471 326.2587493014801 0 0 0
176 1 1 -41.06637277424259 38.61866686222127 326.5209298464999 0 0 0
184 1 1 -41.077596435882974 39.54555858257894 325.9281691553356 0 0 0
175 1 1 -40.15761436358362 38.311218801695034 326.4811688677758 0 0 0
170 1 1 -39.8732163909014 40.05392059925976 327.06439142306937 0 0 0
174 1 1 -40.038823982907225 38.79940228074838 325.61611309319153 0 0 0
173 1 1 -39.12023081931264 38.69086499858819 325.92399323087403 0 0 0
172 1 1 -39.36253321570437 39.12428287041205 326.7341623325862 0 0 0
157 1 1 -43.32118379705866 39.83567290123186 327.45583350069404 0 0 0
164 1 1 -42.06971389326979 40.31080348055934 325.43073730550003 0 0 0
156 1 1 -42.61424005924723 40.20042418139984 326.88239413318513 0 0 0
163 1 1 -42.24689026538443 40.41987429301238 326.36110106668013 0 0 0
167 1 1 -39.98517848035912 40.82176573916849 325.86060927471374 0 0 0
168 1 1 -40.78970134009563 40.39415887573979 326.316904928625 0 0 0
162 1 1 -42.19921865391583 41.280861271090714 326.72881569275944 0 0 0
533 1 1 -47.07649366383172 43.43418258662652 326.8883779972308 0 0 0
531 1 1 -47.27910591172478 44.80612986417312 328.06724130879206 0 0 0
509 1 1 -45.21211060905965 43.98220775476306 326.2572071396868 0 0 0
508 1 1 -45.69218530531961 43.69129026977671 327.02168295168417 0 0 0
511 1 1 -46.2271035756535 45.08233694256727 326.78600321690107 0 0 0
510 1 1 -45.52322410479546 44.92401473256721 326.1113815752241 0 0 0
77 1 1 -43.24453789186025 33.25321391847908 327.6446452048432 0 0 0
76 1 1 -44.01792972637879 32.794384143133065 328.02344508450136 0 0 0
84 1 1 -46.46992228198787 34.168283841174045 328.75990864331214 0 0 0
83 1 1 -45.81401437764226 34.247030431885044 328.0725314896076 0 0 0
80 1 1 -44.132882888261335 35.05015916423997 327.24687560391163 0 0 0
82 1 1 -44.938936309536395 33.882899537316305 328.09482163271326 0 0 0
78 1 1 -43.152427604346265 33.982793772184976 326.99549273680213 0 0 0
79 1 1 -43.240048046340924 34.92908738893009 326.84807166330455 0 0 0
81 1 1 -44.76492524661811 34.29653303412254 327.24217814998207 0 0 0
93 1 1 -46.14334135252175 35.32128238462723 327.7981696442406 0 0 0
94 1 1 -45.22547569092289 35.15870511940555 328.08098760629866 0 0 0
95 1 1 -44.984626523052526 36.053014772979196 327.7492844012349 0 0 0
106 1 1 -44.218705245805616 35.145031714658266 328.1285804302245 0 0 0
96 1 1 -44.08063218258631 36.480769803956726 327.89489913589927 0 0 0
116 1 1 -43.024098941083295 36.01188565991486 328.01982128720863 0 0 0
205 1 1 -41.35595858649227 35.82590179503039 327.7414973421847 0 0 0
220 1 1 -39.131546786548945 35.97823773504538 328.50023637821397 0 0 0
221 1 1 -39.221670769853276 36.47686779928933 327.6751800136109 0 0 0
206 1 1 -40.75591857186068 36.538560100018934 328.04446091124856 0 0 0
222 1 1 -39.89885816824543 37.02637670392219 327.2342001930558 0 0 0
194 1 1 -41.69588215293414 37.21428837981812 328.53535513597757 0 0 0
193 2 1 -42.44703027057553 37.33689660302157 327.9166647122897 0 0 0
208 1 1 -39.669387504921744 37.81239624149695 328.2279420044017 0 0 0
223 1 1 -40.793089382318314 36.919852392640536 327.62882527847705 0 0 0
224 1 1 -41.19787934847409 36.851992562852274 328.51208166038657 0 0 0
210 1 1 -38.7384146033593 37.46281177553405 327.62659211794335 0 0 0
211 1 1 -37.947299026700215 37.33965087205374 328.18939265251373 0 0 0
190 1 1 -43.17691631576783 39.242149514968524 327.7242618583974 0 0 0
191 1 1 -43.15909035706025 38.28083106074376 327.9657913719012 0 0 0
192 1 1 -42.42516689931389 38.09072919010293 328.4839568728702 0 0 0
152 1 1 -42.39074418968228 38.360277598445826 328.23283385386094 0 0 0
154 1 1 -41.059334833579484 39.47387129010036 327.4612648610073 0 0 0
153 1 1 -41.662582409101745 38.72433159123802 327.70738552088056 0 0 0
155 1 1 -41.943557522133595 39.67771571767529 327.2636699264484 0 0 0
151 1 1 -42.57012346275776 39.29098509914938 328.2175235999553 0 0 0
198 1 1 -40.316507659978605 38.74517593791574 327.9037132711058 0 0 0
197 1 1 -40.95967890448841 38.00725815201119 328.3003092805479 0 0 0
145 1 1 -40.399037910337384 39.709189964987814 328.5198452241157 0 0 0
209 1 1 -38.84187963110315 38.296602386354316 328.1526987448969 0 0 0
199 1 1 -39.388859796002045 38.5053672972346 327.8977516811665 0 0 0
543 1 1 -47.94178994370141 42.28106340982549 327.7787340066098 0 0 0
544 1 1 -47.07136852778737 42.06793196609668 328.1820044257194 0 0 0
545 1 1 -46.20493424338966 42.29000579107045 327.85276657225523 0 0 0
158 1 1 -42.997514050284416 40.605601548996226 328.01969090015456 0 0 0
150 1 1 -41.910367477861804 39.87799693353794 328.42983207179356 0 0 0
169 1 1 -40.29430408726259 40.89719623689864 327.0044457473791 0 0 0
148 1 1 -40.823281148798856 40.81012503889112 328.7797748076806 0 0 0
171 1 1 -38.97870974445167 40.03502533091695 326.58082614703096 0 0 0
147 1 1 -40.292920426677014 41.09030841254553 328.0273079246027 0 0 0
146 1 1 -39.7168931695135 40.34080455630951 328.16685168953535 0 0 0
546 1 1 -46.061385902520094 42.77886744170529 328.63030083976264 0 0 0
506 1 1 -44.87442220131983 43.209525217476525 328.56245939202404 0 0 0
504 1 1 -43.57692263290893 42.65403787765582 327.642925803953 0 0 0
159 1 1 -42.1981200253582 40.63960284200372 328.55833128994 0 0 0
160 1 1 -41.816268683823075 41.17970927944009 327.8686476279668 0 0 0
161 1 1 -41.30478868074861 41.24021373882281 327.0849146213607 0 0 0
534 1 1 -47.65330907743734 43.511941020199046 327.68183512389334 0 0 0
535 1 1 -48.421398436853515 44.02171031707118 327.7117937730322 0 0 0
532 1 1 -46.75894004294246 44.18313177577596 327.4772460545663 0 0 0
522 1 1 -47.270439007812534 43.303279413506644 328.46099639927615 0 0 0
523 1 1 -46.59523294531231 43.7406213986521 327.96193148106914 0 0 0
524 1 1 -45.691948892939656 43.94188374035589 328.4512282622101 0 0 0
530 1 1 -47.91639621191938 44.80740051338193 328.84680622629173 0 0 0
529 1 1 -47.44978756228759 44.21356039297031 329.38813070125497 0 0 0
507 1 1 -45.26796062525826 43.17026832597883 327.7325480518941 0 0 0
525 1 1 -45.120139425661414 43.33918139487752 328.8264325572881 0 0 0
502 1 1 -44.223543595975364 44.38883676117813 327.8654816259319 0 0 0
503 1 1 -43.64738506063978 43.6325526238287 327.58856598934085 0 0 0
536 1 1 -48.55801276288162 44.96502038523742 327.6961185195205 0 0 0
512 1 1 -47.014384788770506 45.675893903045164 326.77459702212946 0 0 0
513 1 1 -46.44106327565373 46.19093972321779 327.3711314028746 0 0 0
495 1 1 -45.873475186050264 44.598236458120404 328.1136213118398 0 0 0
496 1 1 -45.60366143477033 45.17777942591258 327.44346606733524 0 0 0
497 1 1 -45.38487060940177 46.10522393465958 327.10539463051737 0 0 0
498 1 1 -45.107217478473665 46.283437825435605 328.0755574685287 0 0 0
500 1 1 -43.75384567496201 46.12303523504443 327.55611061905984 0 0 0
501 1 1 -44.14816067911003 45.236447496973625 327.37815137113665 0 0 0
499 1 1 -44.1863665349993 46.4662492731704 328.4142238527989 0 0 0
514 1 1 -46.60055069612918 46.4657541657578 328.25220078128046 0 0 0
39 1 1 -43.27555283496694 30.71795708597346 329.4162907761713 0 0 0
40 1 1 -42.47810088557512 31.228904306766076 329.3793702793237 0 0 0
41 1 1 -42.89127951891085 32.10916462439295 329.4295555785859 0 0 0
42 1 1 -42.53139818598545 32.086693225331864 330.2865508506454 0 0 0
74 1 1 -45.089496978355214 33.72456148502101 329.21274512897395 0 0 0
75 1 1 -44.440152287986535 33.217375059399245 328.749772310785 0 0 0
110 1 1 -43.509498176113766 34.42954835074319 329.70655078491654 0 0 0
43 1 1 -41.86596793316316 32.561515961092596 330.79401611625286 0 0 0
85 1 1 -46.5204973520906 35.02403661517717 329.2115306810465 0 0 0
107 1 1 -44.31873956485779 34.253098154882196 328.33926046208563 0 0 0
86 1 1 -46.62372149890381 34.873333226323055 330.21439944935014 0 0 0
87 1 1 -45.65163208053956 34.904592052007 330.30411154577683 0 0 0
108 1 1 -43.40999137785008 33.98232738683944 328.49997972123225 0 0 0
103 1 1 -44.21581111286533 34.703822063388294 329.87461697880303 0 0 0
109 1 1 -42.77726831341338 34.2431384625714 329.14884136874724 0 0 0
111 1 1 -43.28223000471613 34.336773912558556 330.69238767041094 0 0 0
92 1 1 -45.93926554653489 36.04098081325459 328.5230470282496 0 0 0
89 1 1 -44.4265425762488 35.86833291124484 330.0529382710964 0 0 0
90 1 1 -44.9826830036182 36.77257863043412 329.91340467793606 0 0 0
105 1 1 -43.81841331263956 35.222488604142654 328.9950365174603 0 0 0
104 1 1 -44.822479110599026 35.21706058956312 329.2322593293616 0 0 0
115 1 1 -43.30125886041755 35.479077950742514 328.8665479604707 0 0 0
117 1 1 -42.5870352696772 36.3053588420722 328.87156565097706 0 0 0
114 1 1 -43.36338772844928 36.10231371968678 329.63727511267956 0 0 0
218 1 1 -39.514637350399404 35.60858704016016 330.0169183431708 0 0 0
219 1 1 -38.83454683798551 35.82795040512429 329.39816056998563 0 0 0
91 1 1 -45.35765876360402 36.145900660160756 329.3134322632633 0 0 0
99 1 1 -44.2490007354619 37.23020944790127 329.8543966243757 0 0 0
98 1 1 -44.753950676278414 37.09885336312022 328.96899483661116 0 0 0
97 1 1 -44.41126575687773 36.230450291246 328.7556383483893 0 0 0
121 1 1 -43.48129648373766 38.47789636491296 329.9106445765931 0 0 0
100 1 1 -43.94783996112876 36.859644085419376 330.6907864881214 0 0 0
120 1 1 -43.4568095988135 37.72794486217177 329.3023766640658 0 0 0
134 1 1 -42.34366552811417 38.04857646291354 329.95762296712695 0 0 0
118 1 1 -42.26426649845524 36.88843010104918 329.4866373710854 0 0 0
119 1 1 -42.56286557414851 37.75339402156033 329.6450696256992 0 0 0
195 1 1 -41.241105108307444 37.62077678110113 329.2869840767042 0 0 0
225 1 1 -40.86371022188628 37.33536171276131 329.33775759385406 0 0 0
196 1 1 -40.89797892210002 38.56428171177919 329.0488578606298 0 0 0
226 1 1 -40.01879180012942 37.47535277575326 329.7695818897458 0 0 0
233 1 1 -39.2889095937129 38.47751900151719 329.05483047204945 0 0 0
207 1 1 -40.066543977721416 37.00673589863791 328.57035522458597 0 0 0
214 1 1 -39.088753237653975 36.83514907374384 329.7268750771383 0 0 0
213 1 1 -38.820935215966635 37.73395334909662 329.4638376076801 0 0 0
212 1 1 -38.14399285325703 37.221889170344966 329.090645017143 0 0 0
122 1 1 -43.96158101086232 38.970181996043614 330.55249614478157 0 0 0
141 1 1 -42.32890291703297 39.252971624120086 329.4180041598649 0 0 0
142 1 1 -41.865620096792256 38.551055439698196 328.8759994472674 0 0 0
143 1 1 -41.7869267927861 39.40907797827043 328.45721541114915 0 0 0
144 1 1 -41.048212457698234 39.245042542023725 329.0601552691838 0 0 0
230 1 1 -41.36263303711907 38.6845433147522 330.0794215882607 0 0 0
231 1 1 -40.607755587597076 39.20289341267221 329.6259910406537 0 0 0
234 1 1 -39.35528873303906 39.04120523366901 328.3070479828549 0 0 0
232 1 1 -39.739733689482094 38.879761603612266 329.76243653520316 0 0 0
235 1 1 -39.464084521682004 39.713962963381974 329.03440690008847 0 0 0
560 1 1 -50.28132932588529 41.31792927381836 330.06272646306655 0 0 0
561 1 1 -49.684122371517674 41.10046763359401 329.3181389147123 0 0 0
562 1 1 -49.281394813086365 40.321651576574574 328.826089066006 0 0 0
563 1 1 -48.7496663147243 40.59086463077192 329.59543884709143 0 0 0
555 1 1 -47.61564520280473 41.24908370416633 330.14241504633094 0 0 0
140 1 1 -42.854444715810175 39.933707266278546 329.72083531559593 0 0 0
139 1 1 -42.63815253592793 40.83611977119818 330.0022707530875 0 0 0
138 1 1 -41.83235702359064 41.2729851529925 330.2075304591352 0 0 0
149 1 1 -41.194275966012924 40.44475345454405 327.99345511924105 0 0 0
236 1 1 -39.80526902123687 40.10038761901363 329.8395120121273 0 0 0
247 1 1 -38.10265192946891 40.913000499898 329.73032261054317 0 0 0
559 1 1 -50.27250182051611 42.272910390477506 330.08111202590413 0 0 0
558 1 1 -49.36471731558906 42.021379460284535 329.9313876522138 0 0 0
541 1 1 -47.71036551444531 42.658450523096306 329.22248397400466 0 0 0
557 1 1 -49.229683134325086 41.523762295332816 330.7183033564814 0 0 0
542 1 1 -47.685902322444676 43.10131992262768 328.37137581348645 0 0 0
547 1 1 -45.98042407416673 42.316197072848546 329.46098057677733 0 0 0
549 1 1 -46.82997346268261 42.95420513139194 329.6109058433781 0 0 0
548 1 1 -46.34326229457349 42.48053352296407 330.32861257789557 0 0 0
505 1 1 -44.04424447596318 42.74552450911223 328.4911555377784 0 0 0
246 1 1 -38.63257621472834 41.772358824054464 329.7290159993041 0 0 0
264 1 1 -36.16749450560497 42.137631835314416 329.87920948552875 0 0 0
263 1 1 -35.167012163572174 42.19498165210369 329.8621763861498 0 0 0
538 1 1 -49.0521722039205 43.95356755604447 328.7669099303173 0 0 0
539 1 1 -48.34840206195343 43.87323193414407 329.39022630568786 0 0 0
540 1 1 -48.573056452135894 42.99334903492405 329.2793887599217 0 0 0
550 1 1 -47.720075417685194 43.11904791505384 330.0261158109882 0 0 0
521 1 1 -46.86033390350941 43.30505427137914 329.32079917000243 0 0 0
519 1 1 -46.812103982450374 44.071171959075926 330.3345967170314 0 0 0
520 1 1 -46.53401089949875 44.18434180506769 329.38945114458687 0 0 0
527 1 1 -45.76753843258255 44.04591295856448 329.5828845028431 0 0 0
526 1 1 -44.86210184917895 44.22598454663424 329.2189119356021 0 0 0
474 1 1 -44.142960422189425 44.544380250064044 329.59439917750996 0 0 0
537 1 1 -49.335997157687316 44.53427234152086 328.04101680003026 0 0 0
517 1 1 -47.21546880888101 45.77201906670007 329.85155183793705 0 0 0
518 1 1 -47.375423003419066 44.849870027746604 330.17964821110974 0 0 0
516 1 1 -46.552166734035616 45.815215906109664 329.1602586523174 0 0 0
528 1 1 -46.57114752823633 44.47531832662467 329.3021825009723 0 0 0
494 1 1 -46.40501023463682 45.37383689939673 328.1932443177766 0 0 0
492 1 1 -45.68727085349052 44.953903063335076 329.3118318012995 0 0 0
493 1 1 -46.415029646658425 45.56954993262115 329.09308070027794 0 0 0
490 1 1 -44.56528438808381 45.199284728615496 329.1142580901787 0 0 0
515 1 1 -45.88739952362836 46.44846292977292 328.9452168999776 0 0 0
486 1 1 -45.42769910275213 47.22796369476044 329.78549319369677 0 0 0
487 1 1 -44.583708973630046 46.99040462568811 329.2803648622662 0 0 0
488 1 1 -43.98071409695555 46.24880697514678 329.12171868831234 0 0 0
38 1 1 -43.380973994453264 30.632888861997092 330.39505977848387 0 0 0
27 1 1 -41.50346740091147 30.33861542462879 331.3313295295374 0 0 0
28 1 1 -41.06111774893857 30.883751588157494 330.6301329366214 0 0 0
37 1 1 -44.35282027911897 30.514664077253578 330.5692368809896 0 0 0
35 1 1 -44.71625626608876 31.874745170907726 331.60178677945964 0 0 0
36 1 1 -44.28233195606152 31.402039036372024 330.9690793497881 0 0 0
46 1 1 -43.392283677345915 31.70447159430807 331.99520360753485 0 0 0
29 1 1 -41.10693501874903 31.772429524174655 331.07777527734936 0 0 0
30 1 1 -42.026072223638714 31.672813523923946 331.33190512196455 0 0 0
1 1 1 -40.591186066931826 30.555398631552187 331.0373561725197 0 0 0
2 1 1 -40.50233028997465 31.545617995947026 331.2639373129194 0 0 0
48 1 1 -44.07861369633878 33.31243253013846 331.8147027567108 0 0 0
49 1 1 -44.23719531007548 33.28695872254409 330.8413889699706 0 0 0
47 1 1 -44.03386873838064 32.35168060583344 331.72300043117934 0 0 0
50 1 1 -43.42143498291129 32.780545346093284 330.80705043841346 0 0 0
51 1 1 -43.20751349630245 33.697672075267725 330.8581017345305 0 0 0
45 1 1 -42.92679573431537 32.60508637831133 331.95555173254047 0 0 0
44 1 1 -41.94206389045683 32.7285683981792 331.7288029348466 0 0 0
73 1 1 -44.57224728562235 33.44446338317993 329.9619617207022 0 0 0
72 1 1 -44.34059064925208 33.86072717108434 330.83354640504893 0 0 0
71 1 1 -44.72732332653213 34.56739417099969 331.3753302608077 0 0 0
61 1 1 -46.149394729252236 35.77232103463537 332.06462429926074 0 0 0
63 1 1 -44.492083506508116 35.42906784189681 331.90141990868614 0 0 0
113 1 1 -42.56633936533959 35.54038369443052 329.9416735169395 0 0 0
112 1 1 -42.76039929471202 35.10937300900999 330.81027013833517 0 0 0
7 1 1 -40.52148015994245 33.09313706825684 332.5343566628773 0 0 0
88 1 1 -45.30558381601299 35.831624556147645 330.4962135535531 0 0 0
62 1 1 -45.313053310956704 35.93883560946801 331.657532599231 0 0 0
101 1 1 -43.76827743792284 36.00322654339445 331.12677507918363 0 0 0
102 1 1 -43.84023243534074 35.30874920755731 330.5115033073102 0 0 0
217 1 1 -40.29726375845989 36.047481433581574 330.27129187039213 0 0 0
215 1 1 -38.81695718214747 36.9338529927659 330.62437968171054 0 0 0
580 1 1 -47.81729472033261 39.17997215326281 331.41817793407097 0 0 0
132 1 1 -43.16085418495495 37.02842170624218 331.08090501280697 0 0 0
133 1 1 -43.03572529156782 37.87192259400856 330.6100542463248 0 0 0
130 1 1 -42.03612175318765 37.087700789951185 331.0179316951481 0 0 0
131 1 1 -42.506314672225464 36.33924481310074 331.3709353396032 0 0 0
129 1 1 -41.63543921227549 37.91704076540063 330.8805890347221 0 0 0
227 1 1 -40.44216276242105 38.11500795926851 330.29092537842695 0 0 0
216 1 1 -39.78542233499461 36.859806683559775 330.6171478990531 0 0 0
325 1 1 -38.204309283062564 39.02931635673099 330.62772040459 0 0 0
326 1 1 -37.71647376292075 38.25005797851103 330.9927551742124 0 0 0
328 1 1 -36.54361174631276 37.123572392715204 331.18563308842664 0 0 0
327 23 1 -36.787731695039135 37.83774634808171 330.61539305916017 0 0 0
566 1 1 -49.584606186499244 39.44256876836623 331.46919476457697 0 0 0
582 1 1 -46.571496505847 40.16964776469015 331.7451730016033 0 0 0
583 1 1 -47.08380097823599 40.525764892531 330.98417434163616 0 0 0
581 1 1 -46.825864634740846 39.31332509376411 331.3028206530399 0 0 0
123 1 1 -43.15495240567825 39.49275120968505 330.6303218236759 0 0 0
124 1 1 -43.463520625180706 39.551235583029 331.4965110067887 0 0 0
125 1 1 -43.65418799764903 38.60728293502862 331.8110393662573 0 0 0
135 1 1 -42.30159702010618 38.735602187219605 330.6357394539631 0 0 0
136 1 1 -42.00374143296945 39.6346464681573 330.8717330572395 0 0 0
229 1 1 -40.88495335118503 39.05333144435867 330.80890729168226 0 0 0
228 1 1 -40.01854532198342 38.718396755325145 330.88327153425763 0 0 0
238 1 1 -39.875831591080804 40.33018936182031 331.38020132894445 0 0 0
324 1 1 -37.802463898459735 39.64110178423682 331.2140245254002 0 0 0
323 1 1 -37.684513250483015 39.94732696369471 332.1099409125309 0 0 0
336 1 1 -37.268229012019056 38.39556651707844 332.2513624762682 0 0 0
316 1 1 -37.291954027405545 39.56421919167137 330.869295644721 0 0 0
318 1 1 -35.93943552358163 38.73613987163246 331.1547466982087 0 0 0
317 1 1 -36.792257927625215 38.77655308010972 330.7029994646468 0 0 0
310 22 1 -34.925399586024916 39.550125926445425 331.3908358909446 0 0 0
565 1 1 -48.887281790277314 39.40708156312107 330.82423586753464 0 0 0
567 1 1 -50.55109215230176 39.5174632258697 331.76289523436697 0 0 0
564 1 1 -49.15472038477286 40.20100618244973 330.3295190941701 0 0 0
576 1 1 -48.87013946977695 40.969659779790575 331.79281171491846 0 0 0
577 1 1 -49.38185434773113 40.22385341712744 331.4102012019913 0 0 0
554 1 1 -46.84717659896116 41.54298790819949 330.65987626480444 0 0 0
137 1 1 -41.54531460220973 40.51673825081497 330.757231659682 0 0 0
237 1 1 -39.52613261264751 39.725900761058604 330.66722821895775 0 0 0
240 1 1 -39.61156077686555 41.54663860116684 330.41724290011643 0 0 0
239 1 1 -40.30289369174519 40.952437735388685 330.7536754244723 0 0 0
249 1 1 -38.55347534504265 41.02955762845828 331.0720279451427 0 0 0
248 1 1 -38.479214862585714 40.31399534875325 330.4071532743798 0 0 0
265 1 1 -36.570280434376414 41.45790399348521 330.4437008200458 0 0 0
322 1 1 -36.832934480636084 40.15654755009937 332.6705085283974 0 0 0
266 7 1 -37.38197244002665 41.43250598532461 330.89519126608957 0 0 0
314 1 1 -36.678057233124555 40.3949586318068 330.0376706978952 0 0 0
313 1 1 -35.7353813438811 40.60054165739124 329.9664431983371 0 0 0
315 1 1 -37.19545173496766 40.52250263285804 330.9187420301304 0 0 0
311 1 1 -35.86289094755651 39.6508313669558 331.23761020072106 0 0 0
299 1 1 -36.31742443602511 40.98936514243588 331.79361586275377 0 0 0
312 1 1 -35.425878277080095 39.78058689555493 330.34026608245483 0 0 0
300 17 1 -35.77909703923676 40.76719877729502 331.05772694526416 0 0 0
301 18 1 -34.934741606061245 40.70516056248174 331.557036862835 0 0 0
571 1 1 -50.94352135136186 42.15927910900775 331.2745683650101 0 0 0
570 1 1 -50.73350549212427 41.392886941360246 331.7618286605257 0 0 0
556 1 1 -48.591901783400345 41.00477448571932 330.21811703159443 0 0 0
575 1 1 -48.49608126284295 41.84584386018679 331.5458375016336 0 0 0
574 1 1 -49.01771601547028 42.591899798305235 331.79054446315865 0 0 0
552 1 1 -47.315599460873926 42.260969698685216 331.6176893570544 0 0 0
553 1 1 -46.46456736177705 41.95989284626936 331.4638784072925 0 0 0
551 1 1 -47.452333476277396 42.900577343784654 330.9619522447042 0 0 0
475 1 1 -44.1506381923586 43.6436852708943 329.9918922453305 0 0 0
476 1 1 -44.74353370790505 43.208441376869914 330.62861555701704 0 0 0
242 4 1 -39.55356949248518 42.90968121547464 331.79613057948194 0 0 0
241 1 1 -39.490204834138346 42.253372345238496 331.0849466316485 0 0 0
244 1 1 -38.326217442682534 43.38400318212933 330.46262141506924 0 0 0
245 1 1 -38.21678821621746 42.54501374316516 329.9797090255024 0 0 0
268 8 1 -37.06926513689192 42.75164488964757 330.7995547950833 0 0 0
267 1 1 -37.86733802835298 42.21645091534128 330.80781331293974 0 0 0
259 1 1 -36.49394168814687 43.26791335157733 330.5197272808266 0 0 0
269 1 1 -37.23422012769033 43.025669455725186 331.6768593891568 0 0 0
261 1 1 -34.911198535805845 42.2971310713517 331.15454686111065 0 0 0
298 1 1 -36.18528013672557 41.86552018587336 331.4948448371958 0 0 0
260 1 1 -35.56735537705332 42.92176025902288 330.6737477831543 0 0 0
262 1 1 -34.33121881475221 42.17858583672428 330.39401691723174 0 0 0
572 1 1 -50.0529156567498 42.558166855174484 331.4534269565778 0 0 0
573 1 1 -49.480200603054186 41.9793918964965 331.0711635485361 0 0 0
480 1 1 -47.69527453513089 44.40647691516521 331.1739164282598 0 0 0
478 1 1 -46.12868494414824 43.82321541194149 331.5000435361031 0 0 0
479 1 1 -46.82906254455008 44.16772241240438 330.95761899007607 0 0 0
477 1 1 -45.36290983915316 43.25100842830438 331.34762843857357 0 0 0
473 1 1 -44.82032333857363 44.54192806923048 330.2834411486438 0 0 0
472 1 1 -45.63121192240172 43.88689625568866 330.21518019976753 0 0 0
471 1 1 -46.38205074909914 44.28384268999655 330.6857204080694 0 0 0
466 1 1 -43.96991716182127 42.768156221133346 331.44665001981684 0 0 0
465 1 1 -43.776990895821356 43.642944262607045 331.0784207036975 0 0 0
464 1 1 -43.709250320610614 44.644524351303566 330.98103289470515 0 0 0
243 1 1 -38.95227468324047 43.27289888752841 331.1053130123048 0 0 0
270 9 1 -37.71617207316848 43.81406310214875 331.9583507560634 0 0 0
258 1 1 -37.11289076816732 43.82848729254834 330.9195356978282 0 0 0
257 1 1 -36.28855213744105 44.17674256401397 331.1667504152317 0 0 0
481 1 1 -48.00566739785085 45.31324720749828 330.99551344261084 0 0 0
483 1 1 -46.673051810919425 46.04374986914198 330.9659829748974 0 0 0
482 1 1 -47.34429869167193 45.64814865726586 330.38986748301136 0 0 0
491 1 1 -45.030107538925584 45.419384324022595 329.8781231018376 0 0 0
470 1 1 -45.62614396311733 45.02457141786087 330.8963117033654 0 0 0
469 1 1 -45.75641001787566 44.367614697533035 331.57855120725657 0 0 0
489 1 1 -43.87611420792521 45.451384887649844 329.7157080015326 0 0 0
463 1 1 -43.83012904494855 44.73022217266141 331.9446573920467 0 0 0
484 1 1 -46.51292252689197 46.51996561403658 330.1214915264547 0 0 0
485 1 1 -45.78956130092021 46.348895133767904 329.51400806745045 0 0 0
26 1 1 -41.594248360405665 29.70367028122251 332.0575463549356 0 0 0
25 1 1 -42.073844671699604 29.920434024032467 332.85472555989384 0 0 0
33 1 1 -43.76674807431358 30.570182343017528 332.0500416509538 0 0 0
34 1 1 -44.56948645412367 31.052867712984455 332.0657291713915 0 0 0
32 1 1 -43.044713847093206 30.87564750968183 332.67560178126644 0 0 0
31 1 1 -42.273342779799655 31.038468243595815 332.18471537185656 0 0 0
15 1 1 -42.534700158061725 31.285141043584627 332.9352578118983 0 0 0
23 1 1 -43.058636021391706 30.46055680651484 333.461773367536 0 0 0
3 1 1 -40.70387154027742 31.315009213974303 332.2137096397557 0 0 0
4 1 1 -40.231997542683786 31.518619723357364 333.0075672465492 0 0 0
59 1 1 -46.08146026191893 34.00470402160822 331.7370986862649 0 0 0
58 1 1 -45.29202928876665 33.75842711737066 332.2961727616263 0 0 0
17 1 1 -42.512685198630756 32.63327320413137 333.2124636719274 0 0 0
9 1 1 -41.97463965029083 33.85019952575864 332.76665220279597 0 0 0
16 1 1 -42.969542300217235 32.08794065844837 332.55475332354763 0 0 0
8 1 1 -40.99867108087918 33.84895868140847 332.5911370550383 0 0 0
12 1 1 -40.7145588139902 32.60241365132255 333.5417402368575 0 0 0
5 1 1 -39.537192269444844 32.1563456821156 332.92091152191483 0 0 0
6 1 1 -39.521409637343226 33.08551452582862 332.66902526323133 0 0 0
60 1 1 -46.401436108745806 34.83831132092512 331.948383323644 0 0 0
70 1 1 -45.01559039751018 34.30307988578275 332.17662750196837 0 0 0
69 1 1 -44.7009229452583 34.67554283967433 332.98457916327715 0 0 0
52 1 1 -42.62621882955131 33.618124075137786 331.6545849090247 0 0 0
54 1 1 -43.32369045745178 34.15878502670738 332.6218075287876 0 0 0
66 1 1 -42.91311760011622 35.4282102581917 332.99994909464607 0 0 0
55 1 1 -43.84250036553828 34.055158242954384 333.4648746071292 0 0 0
53 1 1 -42.6168478095939 34.48924689709082 332.0143021709429 0 0 0
10 1 1 -42.350626907652405 33.39781510116678 333.5813561243357 0 0 0
64 1 1 -43.68117246030393 35.810899636106946 332.12976437974874 0 0 0
65 1 1 -42.912119908824806 35.325346024680556 332.06377153273183 0 0 0
329 1 1 -36.70954389430207 36.87874796282715 332.1042616044342 0 0 0
127 1 1 -42.34184357925415 39.27640004004173 331.8441038882826 0 0 0
128 1 1 -41.724738264573396 38.56766945219054 331.59963594203776 0 0 0
345 1 1 -38.335650703323864 37.746007560723385 332.52631840250365 0 0 0
330 1 1 -37.37101538811896 36.877926473022875 332.71876128125183 0 0 0
344 28 1 -37.47112267988862 38.180766406300314 332.58756419041225 0 0 0
333 1 1 -35.629844092935095 38.06452898009365 333.0197126344963 0 0 0
332 1 1 -36.5448211730582 37.7349580894077 332.79160609923656 0 0 0
579 1 1 -47.725815295073495 39.87683093915098 332.06917938258584 0 0 0
585 1 1 -47.02774765846788 40.91524065239841 332.71678394736387 0 0 0
126 1 1 -42.99634084832094 38.83003818476137 332.43011357003064 0 0 0
373 38 1 -39.91560036819354 39.67193199622503 332.38986455714553 0 0 0
372 1 1 -40.694340174172815 39.20003836054191 332.6397346395822 0 0 0
340 1 1 -39.04011306801181 38.715205187648095 333.3406318176776 0 0 0
339 26 1 -38.64170436714639 39.50839172290406 333.7002713742981 0 0 0
337 1 1 -38.074131866305336 39.02200474785177 332.31629068252823 0 0 0
343 1 1 -37.4184277784551 38.17449073921105 333.5780967472524 0 0 0
338 25 1 -37.863006464592104 39.27125079086266 333.1812841092646 0 0 0
335 1 1 -36.383523906206015 38.48581371476954 331.79329866373155 0 0 0
334 1 1 -35.903003751769084 38.79688392478688 332.5476110395902 0 0 0
305 1 1 -35.73711750301915 39.94915189066596 332.895069838354 0 0 0
309 1 1 -34.27660939877767 39.223320879867465 332.060210831296 0 0 0
308 21 1 -34.66647202390098 38.66896881097048 332.7618564417966 0 0 0
307 1 1 -34.66205020901622 38.843429347769856 333.6681211641807 0 0 0
568 1 1 -50.04420831937674 40.043120821406916 332.3243564444682 0 0 0
578 1 1 -48.73402283875453 39.90711726999327 332.0697418812711 0 0 0
584 1 1 -47.38534816737735 40.99778344303798 331.84843244004753 0 0 0
374 1 1 -40.158964355678236 40.47782962993209 332.81817528784563 0 0 0
376 1 1 -39.149986472745525 40.61376000772947 332.3252138450846 0 0 0
375 1 1 -39.25733658494709 40.716303277400606 333.2840803479834 0 0 0
321 1 1 -37.03739837547816 39.2391059295229 332.86396036232173 0 0 0
250 1 1 -37.96102263758725 40.97216044165473 331.8250453557299 0 0 0
320 1 1 -36.23255848777623 39.150933495986074 332.46083868624976 0 0 0
294 1 1 -36.98752323560729 41.012615403259716 332.9748080516126 0 0 0
319 1 1 -36.32065736195998 39.585990333635635 331.567114009762 0 0 0
304 1 1 -35.944183824298584 40.79323541732769 333.3611478099629 0 0 0
293 1 1 -36.061488883185945 41.17550188380118 332.98856945623805 0 0 0
292 1 1 -35.338348819271594 41.40504303806719 332.38196340395893 0 0 0
302 19 1 -35.10425717396148 40.97221122954339 332.468118669527 0 0 0
303 20 1 -34.942412324881644 40.59808455939736 333.38830371588745 0 0 0
569 1 1 -50.18074802851567 41.01930507524862 332.52306233298845 0 0 0
446 1 1 -44.62883158908172 43.08644745981204 333.185038025739 0 0 0
444 1 1 -44.01304802528439 41.496204920947314 332.5273204713068 0 0 0
443 1 1 -43.24515861338338 41.43373099455347 333.16371042818525 0 0 0